<?xml version="1.0" encoding="UTF-8"?>

<!-- generated on 2026-05-23T14:50:27.314705-05:00 by Eclipse SUMO sumo 1.26.0
<sumoConfiguration xmlns:xsi="http://www.w3.org/2001/XMLSchema-instance" xsi:noNamespaceSchemaLocation="http://sumo.dlr.de/xsd/sumoConfiguration.xsd">

    <input>
        <net-file value="C:\Proyecto_Tesis_Final_V1\traffic_project\tsc_framework\sumo_configs\networks\hangzhou_4x4.net.xml"/>
        <route-files value="C:\Proyecto_Tesis_Final_V1\traffic_project\tsc_framework\experiments\hangzhou_robustness\scenarios\hangzhou_quito_imprudent_30pct_dense.rou.xml"/>
    </input>

    <output>
        <tripinfo-output value="C:\Proyecto_Tesis_Final_V1\traffic_project\tsc_framework\experiments\hangzhou_robustness\results\tripinfo_imprudent_30pct.xml"/>
        <statistic-output value="C:\Proyecto_Tesis_Final_V1\traffic_project\tsc_framework\experiments\hangzhou_robustness\results\stats_imprudent_30pct.xml"/>
    </output>

    <time>
        <end value="3600"/>
    </time>

    <report>
        <no-step-log value="true"/>
    </report>

    <gui_only>
        <quit-on-end value="true"/>
    </gui_only>

</sumoConfiguration>
-->

<tripinfos xmlns:xsi="http://www.w3.org/2001/XMLSchema-instance" xsi:noNamespaceSchemaLocation="http://sumo.dlr.de/xsd/tripinfo_file.xsd">
    <tripinfo id="13" depart="13.00" departLane="A1B1_0" departPos="5.10" departSpeed="0.00" departDelay="0.00" arrival="84.00" arrivalLane="A1B1_0" arrivalPos="485.60" arrivalSpeed="13.53" duration="71.00" routeLength="480.50" waitingTime="0.00" waitingCount="0" stopTime="0.00" timeLoss="43.86" rerouteNo="0" devices="tripinfo_13" vType="imprudent_6_nominal" speedFactor="1.31" vaporized=""/>
    <tripinfo id="29" depart="29.00" departLane="A2B2_0" departPos="5.10" departSpeed="0.00" departDelay="0.00" arrival="138.00" arrivalLane="B2B1_0" arrivalPos="485.60" arrivalSpeed="17.45" duration="109.00" routeLength="975.13" waitingTime="0.00" waitingCount="0" stopTime="0.00" timeLoss="52.65" rerouteNo="0" devices="tripinfo_29" vType="imprudent_22_nominal" speedFactor="1.26" vaporized=""/>
    <tripinfo id="23" depart="23.00" departLane="A1B1_0" departPos="5.10" departSpeed="0.00" departDelay="0.00" arrival="146.00" arrivalLane="B1A1_0" arrivalPos="485.60" arrivalSpeed="13.67" duration="123.00" routeLength="970.77" waitingTime="0.00" waitingCount="0" stopTime="0.00" timeLoss="73.32" rerouteNo="0" devices="tripinfo_23" vType="imprudent_14_nominal" speedFactor="1.43" vaporized=""/>
    <tripinfo id="19" depart="19.00" departLane="D1D0_0" departPos="5.10" departSpeed="0.00" departDelay="0.00" arrival="169.00" arrivalLane="C1B1_0" arrivalPos="485.60" arrivalSpeed="15.69" duration="150.00" routeLength="1971.11" waitingTime="3.00" waitingCount="1" stopTime="0.00" timeLoss="25.00" rerouteNo="0" devices="tripinfo_19" vType="DEFAULT_VEHTYPE" speedFactor="1.16" vaporized=""/>
    <tripinfo id="94" depart="94.00" departLane="A3B3_0" departPos="5.10" departSpeed="0.00" departDelay="0.00" arrival="169.00" arrivalLane="B3A3_0" arrivalPos="489.60" arrivalSpeed="14.42" duration="75.00" routeLength="978.77" waitingTime="0.00" waitingCount="0" stopTime="0.00" timeLoss="9.58" rerouteNo="0" devices="tripinfo_94" vType="DEFAULT_VEHTYPE" speedFactor="1.09" vaporized=""/>
    <tripinfo id="66" depart="69.00" departLane="D1D2_0" departPos="5.10" departSpeed="0.00" departDelay="3.00" arrival="172.00" arrivalLane="D2D3_0" arrivalPos="489.60" arrivalSpeed="11.90" duration="103.00" routeLength="984.50" waitingTime="0.00" waitingCount="0" stopTime="0.00" timeLoss="24.23" rerouteNo="0" devices="tripinfo_66" vType="DEFAULT_VEHTYPE" speedFactor="0.91" vaporized=""/>
    <tripinfo id="52" depart="52.00" departLane="B0C0_0" departPos="5.10" departSpeed="0.00" departDelay="0.00" arrival="175.00" arrivalLane="C1D1_0" arrivalPos="485.60" arrivalSpeed="13.84" duration="123.00" routeLength="1474.93" waitingTime="1.00" waitingCount="1" stopTime="0.00" timeLoss="16.28" rerouteNo="0" devices="tripinfo_52" vType="DEFAULT_VEHTYPE" speedFactor="1.02" vaporized=""/>
    <tripinfo id="10" depart="12.00" departLane="D0C0_0" departPos="5.10" departSpeed="0.00" departDelay="2.00" arrival="180.00" arrivalLane="C2C3_0" arrivalPos="485.60" arrivalSpeed="7.84" duration="168.00" routeLength="1979.13" waitingTime="0.00" waitingCount="0" stopTime="0.00" timeLoss="67.63" rerouteNo="0" devices="tripinfo_10" vType="imprudent_0_nominal" speedFactor="1.43" vaporized=""/>
    <tripinfo id="39" depart="39.00" departLane="B0C0_0" departPos="5.10" departSpeed="0.00" departDelay="0.00" arrival="180.00" arrivalLane="B0B1_0" arrivalPos="485.60" arrivalSpeed="11.01" duration="141.00" routeLength="1465.40" waitingTime="2.00" waitingCount="1" stopTime="0.00" timeLoss="22.41" rerouteNo="0" devices="tripinfo_39" vType="DEFAULT_VEHTYPE" speedFactor="0.90" vaporized=""/>
    <tripinfo id="17" depart="17.00" departLane="B2B1_0" departPos="5.10" departSpeed="0.00" departDelay="0.00" arrival="185.00" arrivalLane="C0D0_0" arrivalPos="489.60" arrivalSpeed="12.43" duration="168.00" routeLength="1984.29" waitingTime="0.00" waitingCount="0" stopTime="0.00" timeLoss="14.85" rerouteNo="0" devices="tripinfo_17" vType="DEFAULT_VEHTYPE" speedFactor="0.94" vaporized=""/>
    <tripinfo id="44" depart="59.00" departLane="A1B1_0" departPos="5.10" departSpeed="0.00" departDelay="15.00" arrival="187.00" arrivalLane="A1A0_0" arrivalPos="489.60" arrivalSpeed="13.70" duration="128.00" routeLength="1474.56" waitingTime="0.00" waitingCount="0" stopTime="0.00" timeLoss="23.62" rerouteNo="0" devices="tripinfo_44" vType="DEFAULT_VEHTYPE" speedFactor="1.04" vaporized=""/>
    <tripinfo id="51" depart="53.00" departLane="C2C1_0" departPos="5.10" departSpeed="0.00" departDelay="2.00" arrival="195.00" arrivalLane="C0C1_0" arrivalPos="485.60" arrivalSpeed="9.05" duration="142.00" routeLength="1470.77" waitingTime="29.00" waitingCount="1" stopTime="0.00" timeLoss="50.64" rerouteNo="0" devices="tripinfo_51" vType="DEFAULT_VEHTYPE" speedFactor="1.17" vaporized=""/>
    <tripinfo id="9" depart="9.00" departLane="D0C0_0" departPos="5.10" departSpeed="0.00" departDelay="0.00" arrival="199.00" arrivalLane="A0A1_0" arrivalPos="489.60" arrivalSpeed="11.81" duration="190.00" routeLength="1980.68" waitingTime="0.00" waitingCount="0" stopTime="0.00" timeLoss="23.02" rerouteNo="0" devices="tripinfo_9" vType="DEFAULT_VEHTYPE" speedFactor="0.86" vaporized=""/>
    <tripinfo id="78" depart="84.00" departLane="B1C1_0" departPos="5.10" departSpeed="0.00" departDelay="6.00" arrival="203.00" arrivalLane="C1C0_0" arrivalPos="485.60" arrivalSpeed="6.27" duration="119.00" routeLength="975.13" waitingTime="10.00" waitingCount="1" stopTime="0.00" timeLoss="48.31" rerouteNo="0" devices="tripinfo_78" vType="DEFAULT_VEHTYPE" speedFactor="1.01" vaporized=""/>
    <tripinfo id="130" depart="130.00" departLane="D1D2_0" departPos="5.10" departSpeed="0.00" departDelay="0.00" arrival="204.00" arrivalLane="D1D2_0" arrivalPos="485.60" arrivalSpeed="12.83" duration="74.00" routeLength="480.50" waitingTime="0.00" waitingCount="0" stopTime="0.00" timeLoss="47.10" rerouteNo="0" devices="tripinfo_130" vType="imprudent_45_nominal" speedFactor="1.29" vaporized=""/>
    <tripinfo id="18" depart="18.00" departLane="D0D1_0" departPos="5.10" departSpeed="0.00" departDelay="0.00" arrival="207.00" arrivalLane="C1C2_0" arrivalPos="485.60" arrivalSpeed="12.16" duration="189.00" routeLength="1478.93" waitingTime="49.00" waitingCount="2" stopTime="0.00" timeLoss="73.32" rerouteNo="0" devices="tripinfo_18" vType="DEFAULT_VEHTYPE" speedFactor="0.94" vaporized=""/>
    <tripinfo id="127" depart="127.00" departLane="D3D2_0" departPos="5.10" departSpeed="0.00" departDelay="0.00" arrival="213.00" arrivalLane="D3D2_0" arrivalPos="489.60" arrivalSpeed="11.21" duration="86.00" routeLength="484.50" waitingTime="0.00" waitingCount="0" stopTime="0.00" timeLoss="59.58" rerouteNo="0" devices="tripinfo_127" vType="imprudent_5_nominal" speedFactor="1.33" vaporized=""/>
    <tripinfo id="14" depart="14.00" departLane="D1C1_0" departPos="5.10" departSpeed="0.00" departDelay="0.00" arrival="216.00" arrivalLane="C1C0_0" arrivalPos="485.60" arrivalSpeed="13.82" duration="202.00" routeLength="980.29" waitingTime="46.00" waitingCount="1" stopTime="0.00" timeLoss="151.19" rerouteNo="0" devices="tripinfo_14" vType="imprudent_2_nominal" speedFactor="1.42" vaporized=""/>
    <tripinfo id="60" depart="60.00" departLane="C3C2_0" departPos="5.10" departSpeed="0.00" departDelay="0.00" arrival="220.00" arrivalLane="C0C1_0" arrivalPos="485.60" arrivalSpeed="17.67" duration="160.00" routeLength="1970.77" waitingTime="0.00" waitingCount="0" stopTime="0.00" timeLoss="63.32" rerouteNo="0" devices="tripinfo_60" vType="imprudent_0_nominal" speedFactor="1.49" vaporized=""/>
    <tripinfo id="1" depart="1.00" departLane="B1A1_0" departPos="5.10" departSpeed="0.00" departDelay="0.00" arrival="221.00" arrivalLane="B0A0_0" arrivalPos="489.60" arrivalSpeed="16.96" duration="220.00" routeLength="1964.03" waitingTime="0.00" waitingCount="0" stopTime="0.00" timeLoss="106.95" rerouteNo="0" devices="tripinfo_1" vType="imprudent_17_nominal" speedFactor="1.27" vaporized=""/>
    <tripinfo id="7" depart="7.00" departLane="C2B2_0" departPos="5.10" departSpeed="0.00" departDelay="0.00" arrival="227.00" arrivalLane="C0D0_0" arrivalPos="489.60" arrivalSpeed="11.92" duration="220.00" routeLength="2484.08" waitingTime="0.00" waitingCount="0" stopTime="0.00" timeLoss="16.57" rerouteNo="0" devices="tripinfo_7" vType="DEFAULT_VEHTYPE" speedFactor="0.89" vaporized=""/>
    <tripinfo id="45" depart="45.00" departLane="A2A1_0" departPos="5.10" departSpeed="0.00" departDelay="0.00" arrival="230.00" arrivalLane="C1D1_0" arrivalPos="485.60" arrivalSpeed="4.60" duration="185.00" routeLength="1980.30" waitingTime="0.00" waitingCount="0" stopTime="0.00" timeLoss="53.27" rerouteNo="0" devices="tripinfo_45" vType="DEFAULT_VEHTYPE" speedFactor="1.09" vaporized=""/>
    <tripinfo id="30" depart="30.00" departLane="D3D2_0" departPos="5.10" departSpeed="0.00" departDelay="0.00" arrival="233.00" arrivalLane="C1D1_0" arrivalPos="485.60" arrivalSpeed="8.69" duration="203.00" routeLength="1969.40" waitingTime="23.00" waitingCount="2" stopTime="0.00" timeLoss="80.85" rerouteNo="0" devices="tripinfo_30" vType="DEFAULT_VEHTYPE" speedFactor="1.18" vaporized=""/>
    <tripinfo id="15" depart="18.00" departLane="D0C0_0" departPos="5.10" departSpeed="0.00" departDelay="3.00" arrival="237.00" arrivalLane="C3B3_0" arrivalPos="485.60" arrivalSpeed="12.29" duration="219.00" routeLength="2478.92" waitingTime="0.00" waitingCount="0" stopTime="0.00" timeLoss="25.07" rerouteNo="0" devices="tripinfo_15" vType="DEFAULT_VEHTYPE" speedFactor="0.93" vaporized=""/>
    <tripinfo id="6" depart="6.00" departLane="A0B0_0" departPos="5.10" departSpeed="0.00" departDelay="0.00" arrival="238.00" arrivalLane="A3B3_0" arrivalPos="489.60" arrivalSpeed="13.79" duration="232.00" routeLength="2974.91" waitingTime="0.00" waitingCount="0" stopTime="0.00" timeLoss="24.25" rerouteNo="0" devices="tripinfo_6" vType="DEFAULT_VEHTYPE" speedFactor="1.05" vaporized=""/>
    <tripinfo id="26" depart="26.00" departLane="B0C0_0" departPos="5.10" departSpeed="0.00" departDelay="0.00" arrival="243.00" arrivalLane="D2D1_0" arrivalPos="485.60" arrivalSpeed="12.18" duration="217.00" routeLength="2469.56" waitingTime="0.00" waitingCount="0" stopTime="0.00" timeLoss="20.40" rerouteNo="0" devices="tripinfo_26" vType="DEFAULT_VEHTYPE" speedFactor="0.92" vaporized=""/>
    <tripinfo id="33" depart="33.00" departLane="B0A0_0" departPos="5.10" departSpeed="0.00" departDelay="0.00" arrival="247.00" arrivalLane="A0B0_0" arrivalPos="489.60" arrivalSpeed="17.68" duration="214.00" routeLength="1968.29" waitingTime="5.00" waitingCount="1" stopTime="0.00" timeLoss="100.25" rerouteNo="0" devices="tripinfo_33" vType="imprudent_46_nominal" speedFactor="1.27" vaporized=""/>
    <tripinfo id="20" depart="20.00" departLane="C2C3_0" departPos="5.10" departSpeed="0.00" departDelay="0.00" arrival="250.00" arrivalLane="A1A0_0" arrivalPos="489.60" arrivalSpeed="13.61" duration="230.00" routeLength="2985.63" waitingTime="0.00" waitingCount="0" stopTime="0.00" timeLoss="16.39" rerouteNo="0" devices="tripinfo_20" vType="DEFAULT_VEHTYPE" speedFactor="1.02" vaporized=""/>
    <tripinfo id="167" depart="185.00" departLane="D1D0_0" departPos="5.10" departSpeed="0.00" departDelay="18.00" arrival="254.00" arrivalLane="D1D0_0" arrivalPos="489.60" arrivalSpeed="14.02" duration="69.00" routeLength="484.50" waitingTime="0.00" waitingCount="0" stopTime="0.00" timeLoss="44.53" rerouteNo="0" devices="tripinfo_167" vType="imprudent_10_nominal" speedFactor="1.44" vaporized=""/>
    <tripinfo id="57" depart="57.00" departLane="D2C2_0" departPos="5.10" departSpeed="0.00" departDelay="0.00" arrival="256.00" arrivalLane="D1D0_0" arrivalPos="489.60" arrivalSpeed="15.00" duration="199.00" routeLength="1969.40" waitingTime="35.00" waitingCount="1" stopTime="0.00" timeLoss="73.05" rerouteNo="0" devices="tripinfo_57" vType="DEFAULT_VEHTYPE" speedFactor="1.14" vaporized=""/>
    <tripinfo id="16" depart="16.00" departLane="C0C1_0" departPos="5.10" departSpeed="0.00" departDelay="0.00" arrival="259.00" arrivalLane="D3C3_0" arrivalPos="489.60" arrivalSpeed="11.64" duration="243.00" routeLength="2476.26" waitingTime="0.00" waitingCount="0" stopTime="0.00" timeLoss="37.74" rerouteNo="0" devices="tripinfo_16" vType="DEFAULT_VEHTYPE" speedFactor="0.88" vaporized=""/>
    <tripinfo id="214" depart="214.00" departLane="C3C2_0" departPos="5.10" departSpeed="0.00" departDelay="0.00" arrival="261.00" arrivalLane="C3C2_0" arrivalPos="485.60" arrivalSpeed="10.75" duration="47.00" routeLength="480.50" waitingTime="0.00" waitingCount="0" stopTime="0.00" timeLoss="5.12" rerouteNo="0" devices="tripinfo_214" vType="DEFAULT_VEHTYPE" speedFactor="0.83" vaporized=""/>
    <tripinfo id="68" depart="68.00" departLane="A1A2_0" departPos="5.10" departSpeed="0.00" departDelay="0.00" arrival="263.00" arrivalLane="C3C2_0" arrivalPos="485.60" arrivalSpeed="13.71" duration="195.00" routeLength="2471.31" waitingTime="0.00" waitingCount="0" stopTime="0.00" timeLoss="21.58" rerouteNo="0" devices="tripinfo_68" vType="DEFAULT_VEHTYPE" speedFactor="1.04" vaporized=""/>
    <tripinfo id="47" depart="50.00" departLane="A1A2_0" departPos="5.10" departSpeed="0.00" departDelay="3.00" arrival="264.00" arrivalLane="B2B1_0" arrivalPos="485.60" arrivalSpeed="10.83" duration="214.00" routeLength="1469.76" waitingTime="65.00" waitingCount="3" stopTime="0.00" timeLoss="94.12" rerouteNo="0" devices="tripinfo_47" vType="DEFAULT_VEHTYPE" speedFactor="0.90" vaporized=""/>
    <tripinfo id="58" depart="61.00" departLane="B1B0_0" departPos="5.10" departSpeed="0.00" departDelay="3.00" arrival="264.00" arrivalLane="C1D1_0" arrivalPos="485.60" arrivalSpeed="4.77" duration="203.00" routeLength="1974.72" waitingTime="10.00" waitingCount="2" stopTime="0.00" timeLoss="62.13" rerouteNo="0" devices="tripinfo_58" vType="DEFAULT_VEHTYPE" speedFactor="1.02" vaporized=""/>
    <tripinfo id="84" depart="84.00" departLane="B0A0_0" departPos="5.10" departSpeed="0.00" departDelay="0.00" arrival="264.00" arrivalLane="A2A3_0" arrivalPos="489.60" arrivalSpeed="18.04" duration="180.00" routeLength="1980.68" waitingTime="0.00" waitingCount="0" stopTime="0.00" timeLoss="69.97" rerouteNo="0" devices="tripinfo_84" vType="imprudent_4_nominal" speedFactor="1.30" vaporized=""/>
    <tripinfo id="73" depart="76.00" departLane="C0C1_0" departPos="5.10" departSpeed="0.00" departDelay="3.00" arrival="265.00" arrivalLane="C3B3_0" arrivalPos="485.60" arrivalSpeed="18.13" duration="189.00" routeLength="1980.29" waitingTime="0.00" waitingCount="0" stopTime="0.00" timeLoss="82.99" rerouteNo="0" devices="tripinfo_73" vType="imprudent_48_nominal" speedFactor="1.36" vaporized=""/>
    <tripinfo id="36" depart="37.00" departLane="D1D2_0" departPos="5.10" departSpeed="0.00" departDelay="1.00" arrival="268.00" arrivalLane="B1B2_0" arrivalPos="485.60" arrivalSpeed="13.09" duration="231.00" routeLength="2469.35" waitingTime="20.00" waitingCount="1" stopTime="0.00" timeLoss="45.12" rerouteNo="0" devices="tripinfo_36" vType="DEFAULT_VEHTYPE" speedFactor="0.97" vaporized=""/>
    <tripinfo id="79" depart="79.00" departLane="B0B1_0" departPos="5.10" departSpeed="0.00" departDelay="0.00" arrival="272.00" arrivalLane="B0A0_0" arrivalPos="489.60" arrivalSpeed="15.08" duration="193.00" routeLength="1469.40" waitingTime="41.00" waitingCount="2" stopTime="0.00" timeLoss="93.50" rerouteNo="0" devices="tripinfo_79" vType="DEFAULT_VEHTYPE" speedFactor="1.09" vaporized=""/>
    <tripinfo id="65" depart="65.00" departLane="B1B0_0" departPos="5.10" departSpeed="0.00" departDelay="0.00" arrival="273.00" arrivalLane="A1A0_0" arrivalPos="489.60" arrivalSpeed="11.68" duration="208.00" routeLength="1974.36" waitingTime="23.00" waitingCount="1" stopTime="0.00" timeLoss="43.75" rerouteNo="0" devices="tripinfo_65" vType="DEFAULT_VEHTYPE" speedFactor="0.88" vaporized=""/>
    <tripinfo id="88" depart="88.00" departLane="A1B1_0" departPos="5.10" departSpeed="0.00" departDelay="0.00" arrival="278.00" arrivalLane="B2C2_0" arrivalPos="485.60" arrivalSpeed="3.64" duration="190.00" routeLength="1474.92" waitingTime="31.00" waitingCount="1" stopTime="0.00" timeLoss="83.22" rerouteNo="0" devices="tripinfo_88" vType="DEFAULT_VEHTYPE" speedFactor="1.01" vaporized=""/>
    <tripinfo id="132" depart="132.00" departLane="D1C1_0" departPos="5.10" departSpeed="0.00" departDelay="0.00" arrival="278.00" arrivalLane="C2C3_0" arrivalPos="485.60" arrivalSpeed="12.28" duration="146.00" routeLength="1475.13" waitingTime="19.00" waitingCount="1" stopTime="0.00" timeLoss="34.33" rerouteNo="0" devices="tripinfo_132" vType="DEFAULT_VEHTYPE" speedFactor="0.96" vaporized=""/>
    <tripinfo id="22" depart="22.00" departLane="A1A2_0" departPos="5.10" departSpeed="0.00" departDelay="0.00" arrival="280.00" arrivalLane="B0B1_0" arrivalPos="485.60" arrivalSpeed="8.22" duration="258.00" routeLength="2460.03" waitingTime="43.00" waitingCount="2" stopTime="0.00" timeLoss="74.28" rerouteNo="0" devices="tripinfo_22" vType="DEFAULT_VEHTYPE" speedFactor="0.97" vaporized=""/>
    <tripinfo id="32" depart="32.00" departLane="D1C1_0" departPos="5.10" departSpeed="0.00" departDelay="0.00" arrival="282.00" arrivalLane="C3D3_0" arrivalPos="489.60" arrivalSpeed="10.05" duration="250.00" routeLength="1973.76" waitingTime="53.00" waitingCount="2" stopTime="0.00" timeLoss="106.43" rerouteNo="0" devices="tripinfo_32" vType="DEFAULT_VEHTYPE" speedFactor="1.01" vaporized=""/>
    <tripinfo id="38" depart="38.00" departLane="D2C2_0" departPos="5.10" departSpeed="0.00" departDelay="0.00" arrival="282.00" arrivalLane="B3B2_0" arrivalPos="485.60" arrivalSpeed="12.27" duration="244.00" routeLength="1974.72" waitingTime="14.00" waitingCount="1" stopTime="0.00" timeLoss="144.98" rerouteNo="0" devices="tripinfo_38" vType="imprudent_36_nominal" speedFactor="1.46" vaporized=""/>
    <tripinfo id="123" depart="128.00" departLane="B0B1_0" departPos="5.10" departSpeed="0.00" departDelay="5.00" arrival="286.00" arrivalLane="B2B1_0" arrivalPos="485.60" arrivalSpeed="13.75" duration="158.00" routeLength="1470.77" waitingTime="7.00" waitingCount="1" stopTime="0.00" timeLoss="53.50" rerouteNo="0" devices="tripinfo_123" vType="DEFAULT_VEHTYPE" speedFactor="1.02" vaporized=""/>
    <tripinfo id="121" depart="121.00" departLane="C0C1_0" departPos="5.10" departSpeed="0.00" departDelay="0.00" arrival="287.00" arrivalLane="D2D1_0" arrivalPos="485.60" arrivalSpeed="7.77" duration="166.00" routeLength="1969.76" waitingTime="10.00" waitingCount="1" stopTime="0.00" timeLoss="35.57" rerouteNo="0" devices="tripinfo_121" vType="DEFAULT_VEHTYPE" speedFactor="1.10" vaporized=""/>
    <tripinfo id="245" depart="247.00" departLane="B0A0_0" departPos="5.10" departSpeed="0.00" departDelay="2.00" arrival="287.00" arrivalLane="B0A0_0" arrivalPos="489.60" arrivalSpeed="13.41" duration="40.00" routeLength="484.50" waitingTime="0.00" waitingCount="0" stopTime="0.00" timeLoss="4.84" rerouteNo="0" devices="tripinfo_245" vType="DEFAULT_VEHTYPE" speedFactor="1.01" vaporized=""/>
    <tripinfo id="74" depart="74.00" departLane="A3B3_0" departPos="5.10" departSpeed="0.00" departDelay="0.00" arrival="290.00" arrivalLane="B1B0_0" arrivalPos="485.60" arrivalSpeed="6.06" duration="216.00" routeLength="1979.13" waitingTime="23.00" waitingCount="1" stopTime="0.00" timeLoss="66.02" rerouteNo="0" devices="tripinfo_74" vType="DEFAULT_VEHTYPE" speedFactor="0.96" vaporized=""/>
    <tripinfo id="46" depart="46.00" departLane="D0C0_0" departPos="5.10" departSpeed="0.00" departDelay="0.00" arrival="292.00" arrivalLane="B2C2_0" arrivalPos="485.60" arrivalSpeed="7.95" duration="246.00" routeLength="2473.76" waitingTime="7.00" waitingCount="1" stopTime="0.00" timeLoss="65.79" rerouteNo="0" devices="tripinfo_46" vType="DEFAULT_VEHTYPE" speedFactor="1.00" vaporized=""/>
    <tripinfo id="107" depart="107.00" departLane="D2D3_0" departPos="5.10" departSpeed="0.00" departDelay="0.00" arrival="292.00" arrivalLane="D3D2_0" arrivalPos="489.60" arrivalSpeed="18.65" duration="185.00" routeLength="1968.29" waitingTime="0.00" waitingCount="0" stopTime="0.00" timeLoss="77.88" rerouteNo="0" devices="tripinfo_107" vType="imprudent_31_nominal" speedFactor="1.34" vaporized=""/>
    <tripinfo id="124" depart="137.00" departLane="C2C1_0" departPos="5.10" departSpeed="0.00" departDelay="13.00" arrival="295.00" arrivalLane="B1B0_0" arrivalPos="485.60" arrivalSpeed="9.86" duration="158.00" routeLength="1474.92" waitingTime="22.00" waitingCount="1" stopTime="0.00" timeLoss="56.23" rerouteNo="0" devices="tripinfo_124" vType="DEFAULT_VEHTYPE" speedFactor="1.06" vaporized=""/>
    <tripinfo id="2" depart="2.00" departLane="C3B3_0" departPos="5.10" departSpeed="0.00" departDelay="0.00" arrival="300.00" arrivalLane="C2C1_0" arrivalPos="485.60" arrivalSpeed="12.43" duration="298.00" routeLength="1974.73" waitingTime="1.00" waitingCount="1" stopTime="0.00" timeLoss="199.36" rerouteNo="0" devices="tripinfo_2" vType="imprudent_47_nominal" speedFactor="1.47" vaporized=""/>
    <tripinfo id="4" depart="4.00" departLane="B2C2_0" departPos="5.10" departSpeed="0.00" departDelay="0.00" arrival="300.00" arrivalLane="A0B0_0" arrivalPos="489.60" arrivalSpeed="17.59" duration="296.00" routeLength="2970.89" waitingTime="0.00" waitingCount="0" stopTime="0.00" timeLoss="124.83" rerouteNo="0" devices="tripinfo_4" vType="imprudent_13_nominal" speedFactor="1.27" vaporized=""/>
    <tripinfo id="48" depart="49.00" departLane="D3D2_0" departPos="5.10" departSpeed="0.00" departDelay="1.00" arrival="300.00" arrivalLane="C0C1_0" arrivalPos="485.60" arrivalSpeed="11.08" duration="251.00" routeLength="2475.31" waitingTime="0.00" waitingCount="0" stopTime="0.00" timeLoss="45.83" rerouteNo="0" devices="tripinfo_48" vType="DEFAULT_VEHTYPE" speedFactor="0.88" vaporized=""/>
    <tripinfo id="31" depart="31.00" departLane="C0D0_0" departPos="5.10" departSpeed="0.00" departDelay="0.00" arrival="302.00" arrivalLane="C2C1_0" arrivalPos="485.60" arrivalSpeed="15.91" duration="271.00" routeLength="2481.43" waitingTime="41.00" waitingCount="1" stopTime="0.00" timeLoss="113.47" rerouteNo="0" devices="tripinfo_31" vType="DEFAULT_VEHTYPE" speedFactor="1.15" vaporized=""/>
    <tripinfo id="67" depart="67.00" departLane="A1B1_0" departPos="5.10" departSpeed="0.00" departDelay="0.00" arrival="302.00" arrivalLane="B3C3_0" arrivalPos="485.60" arrivalSpeed="12.69" duration="235.00" routeLength="1974.92" waitingTime="43.00" waitingCount="1" stopTime="0.00" timeLoss="77.16" rerouteNo="0" devices="tripinfo_67" vType="DEFAULT_VEHTYPE" speedFactor="0.91" vaporized=""/>
    <tripinfo id="105" depart="108.00" departLane="B0C0_0" departPos="5.10" departSpeed="0.00" departDelay="3.00" arrival="302.00" arrivalLane="C3D3_0" arrivalPos="489.60" arrivalSpeed="14.84" duration="194.00" routeLength="2478.93" waitingTime="0.00" waitingCount="0" stopTime="0.00" timeLoss="25.47" rerouteNo="0" devices="tripinfo_105" vType="DEFAULT_VEHTYPE" speedFactor="1.07" vaporized=""/>
    <tripinfo id="120" depart="120.00" departLane="B2C2_0" departPos="5.10" departSpeed="0.00" departDelay="0.00" arrival="303.00" arrivalLane="C1C0_0" arrivalPos="485.60" arrivalSpeed="5.64" duration="183.00" routeLength="1475.13" waitingTime="32.00" waitingCount="2" stopTime="0.00" timeLoss="69.17" rerouteNo="0" devices="tripinfo_120" vType="DEFAULT_VEHTYPE" speedFactor="0.94" vaporized=""/>
    <tripinfo id="169" depart="169.00" departLane="B3B2_0" departPos="5.10" departSpeed="0.00" departDelay="0.00" arrival="306.00" arrivalLane="B1B0_0" arrivalPos="485.60" arrivalSpeed="5.83" duration="137.00" routeLength="1480.50" waitingTime="0.00" waitingCount="0" stopTime="0.00" timeLoss="23.28" rerouteNo="0" devices="tripinfo_169" vType="DEFAULT_VEHTYPE" speedFactor="0.94" vaporized=""/>
    <tripinfo id="71" depart="71.00" departLane="B0C0_0" departPos="5.10" departSpeed="0.00" departDelay="0.00" arrival="307.00" arrivalLane="D1D0_0" arrivalPos="489.60" arrivalSpeed="16.21" duration="236.00" routeLength="1973.56" waitingTime="13.00" waitingCount="2" stopTime="0.00" timeLoss="139.07" rerouteNo="0" devices="tripinfo_71" vType="imprudent_36_nominal" speedFactor="1.48" vaporized=""/>
    <tripinfo id="61" depart="61.00" departLane="C3D3_0" departPos="5.10" departSpeed="0.00" departDelay="0.00" arrival="310.00" arrivalLane="C0C1_0" arrivalPos="485.60" arrivalSpeed="16.23" duration="249.00" routeLength="2967.49" waitingTime="0.00" waitingCount="0" stopTime="0.00" timeLoss="97.84" rerouteNo="0" devices="tripinfo_61" vType="imprudent_32_nominal" speedFactor="1.43" vaporized=""/>
    <tripinfo id="89" depart="89.00" departLane="B2C2_0" departPos="5.10" departSpeed="0.00" departDelay="0.00" arrival="311.00" arrivalLane="B3B2_0" arrivalPos="485.60" arrivalSpeed="12.82" duration="222.00" routeLength="1979.88" waitingTime="60.00" waitingCount="1" stopTime="0.00" timeLoss="79.68" rerouteNo="0" devices="tripinfo_89" vType="DEFAULT_VEHTYPE" speedFactor="1.02" vaporized=""/>
    <tripinfo id="82" depart="82.00" departLane="D1D0_0" departPos="5.10" departSpeed="0.00" departDelay="0.00" arrival="312.00" arrivalLane="A1A2_0" arrivalPos="485.60" arrivalSpeed="13.80" duration="230.00" routeLength="2972.86" waitingTime="0.00" waitingCount="0" stopTime="0.00" timeLoss="18.75" rerouteNo="0" devices="tripinfo_82" vType="DEFAULT_VEHTYPE" speedFactor="1.02" vaporized=""/>
    <tripinfo id="157" depart="162.00" departLane="C3D3_0" departPos="5.10" departSpeed="0.00" departDelay="5.00" arrival="312.00" arrivalLane="D1D2_0" arrivalPos="485.60" arrivalSpeed="18.54" duration="150.00" routeLength="1966.95" waitingTime="0.00" waitingCount="0" stopTime="0.00" timeLoss="45.70" rerouteNo="0" devices="tripinfo_157" vType="imprudent_49_nominal" speedFactor="1.37" vaporized=""/>
    <tripinfo id="34" depart="34.00" departLane="B1B2_0" departPos="5.10" departSpeed="0.00" departDelay="0.00" arrival="313.00" arrivalLane="B0C0_0" arrivalPos="485.60" arrivalSpeed="14.03" duration="279.00" routeLength="1970.56" waitingTime="0.00" waitingCount="0" stopTime="0.00" timeLoss="176.41" rerouteNo="0" devices="tripinfo_34" vType="imprudent_40_nominal" speedFactor="1.41" vaporized=""/>
    <tripinfo id="72" depart="72.00" departLane="B2C2_0" departPos="5.10" departSpeed="0.00" departDelay="0.00" arrival="314.00" arrivalLane="B0A0_0" arrivalPos="489.60" arrivalSpeed="4.60" duration="242.00" routeLength="2473.76" waitingTime="0.00" waitingCount="0" stopTime="0.00" timeLoss="50.68" rerouteNo="0" devices="tripinfo_72" vType="DEFAULT_VEHTYPE" speedFactor="0.94" vaporized=""/>
    <tripinfo id="49" depart="62.00" departLane="D3C3_0" departPos="5.10" departSpeed="0.00" departDelay="13.00" arrival="315.00" arrivalLane="D1D0_0" arrivalPos="489.60" arrivalSpeed="16.97" duration="253.00" routeLength="2482.73" waitingTime="0.00" waitingCount="0" stopTime="0.00" timeLoss="104.74" rerouteNo="0" devices="tripinfo_49" vType="imprudent_31_nominal" speedFactor="1.23" vaporized=""/>
    <tripinfo id="109" depart="109.00" departLane="A2B2_0" departPos="5.10" departSpeed="0.00" departDelay="0.00" arrival="316.00" arrivalLane="B1B0_0" arrivalPos="485.60" arrivalSpeed="15.08" duration="207.00" routeLength="1475.13" waitingTime="25.00" waitingCount="3" stopTime="0.00" timeLoss="135.07" rerouteNo="0" devices="tripinfo_109" vType="imprudent_0_nominal" speedFactor="1.50" vaporized=""/>
    <tripinfo id="133" depart="133.00" departLane="C1C2_0" departPos="5.10" departSpeed="0.00" departDelay="0.00" arrival="318.00" arrivalLane="D3D2_0" arrivalPos="489.60" arrivalSpeed="19.10" duration="185.00" routeLength="1971.31" waitingTime="0.00" waitingCount="0" stopTime="0.00" timeLoss="81.38" rerouteNo="0" devices="tripinfo_133" vType="imprudent_29_nominal" speedFactor="1.39" vaporized=""/>
    <tripinfo id="154" depart="154.00" departLane="D0C0_0" departPos="5.10" departSpeed="0.00" departDelay="0.00" arrival="320.00" arrivalLane="D1D0_0" arrivalPos="489.60" arrivalSpeed="14.67" duration="166.00" routeLength="1972.39" waitingTime="0.00" waitingCount="0" stopTime="0.00" timeLoss="30.12" rerouteNo="0" devices="tripinfo_154" vType="DEFAULT_VEHTYPE" speedFactor="1.06" vaporized=""/>
    <tripinfo id="122" depart="122.00" departLane="A3B3_0" departPos="5.10" departSpeed="0.00" departDelay="0.00" arrival="325.00" arrivalLane="C2D2_0" arrivalPos="485.60" arrivalSpeed="6.55" duration="203.00" routeLength="1978.93" waitingTime="0.00" waitingCount="0" stopTime="0.00" timeLoss="85.44" rerouteNo="0" devices="tripinfo_122" vType="imprudent_32_nominal" speedFactor="1.22" vaporized=""/>